MODEL 1
REMARK VINA RESULT:      77.8      0.000      0.000
REMARK  5 active torsions:
REMARK  status: ('A' for Active; 'I' for Inactive)
REMARK    1  A    between atoms: S_1  and  C_9 
REMARK    2  A    between atoms: S_1  and  C_10 
REMARK    3  A    between atoms: O_3  and  C_18 
REMARK    4  A    between atoms: N_7  and  C_16 
REMARK       I    between atoms: N_7  and  C_18 
REMARK    5  A    between atoms: C_10  and  C_13 
ROOT
HETATM    1  N   UNK     0      -4.916   8.875  -7.251  0.00  0.00    -0.187 N 
HETATM    2  N   UNK     0      -3.650  10.693  -7.076  0.00  0.00    -0.062 NA
HETATM    3  C   UNK     0      -4.973   9.480  -8.479  0.00  0.00     0.080 A 
HETATM    4  C   UNK     0      -5.464  10.013 -10.746  0.00  0.00     0.033 A 
HETATM    5  C   UNK     0      -4.175  10.613  -8.345  0.00  0.00     0.103 A 
HETATM    6  C   UNK     0      -5.634   9.145  -9.662  0.00  0.00     0.053 A 
HETATM    7  C   UNK     0      -4.670  11.156 -10.641  0.00  0.00     0.023 A 
HETATM    8  C   UNK     0      -4.015  11.473  -9.444  0.00  0.00     0.036 A 
HETATM    9  C   UNK     0      -4.114   9.636  -6.447  0.00  0.00     0.710 A 
HETATM   10  H   UNK     0      -5.384   8.018  -6.986  0.00  0.00     0.184 HD
ENDROOT
BRANCH   9  11
HETATM   11  N   UNK     0      -3.877   9.261  -5.151  0.00  0.00    -0.133 N 
HETATM   12  C   UNK     0      -3.997   7.992  -4.552  0.00  0.00     0.378 C 
HETATM   13  O   UNK     0      -4.349   6.958  -5.106  0.00  0.00    -0.238 OA
HETATM   14  H   UNK     0      -3.569  10.006  -4.530  0.00  0.00     0.190 HD
BRANCH  12  15
HETATM   15  O   UNK     0      -3.660   8.064  -3.227  0.00  0.00    -0.308 OA
HETATM   16  C   UNK     0      -3.788   6.848  -2.478  0.00  0.00     0.215 C 
ENDBRANCH  12  15
ENDBRANCH   9  11
BRANCH   4  17
HETATM   17  S   UNK     0      -6.285   9.645 -12.302  0.00  0.00     0.050 S 
HETATM   18  O   UNK     0      -7.580  10.426 -12.356  0.00  0.00    -0.253 OA
BRANCH  17  19
HETATM   19  C   UNK     0      -6.717   7.904 -12.027  0.00  0.00     0.114 C 
BRANCH  19  20
HETATM   20  C   UNK     0      -5.598   7.184 -11.289  0.00  0.00     0.008 C 
HETATM   21  C   UNK     0      -4.884   6.196 -12.196  0.00  0.00     0.006 C 
ENDBRANCH  19  20
ENDBRANCH  17  19
ENDBRANCH   4  17
TORSDOF 5
ENDMDL
MODEL 2
REMARK VINA RESULT:      79.3      3.734      7.005
REMARK  5 active torsions:
REMARK  status: ('A' for Active; 'I' for Inactive)
REMARK    1  A    between atoms: S_1  and  C_9 
REMARK    2  A    between atoms: S_1  and  C_10 
REMARK    3  A    between atoms: O_3  and  C_18 
REMARK    4  A    between atoms: N_7  and  C_16 
REMARK       I    between atoms: N_7  and  C_18 
REMARK    5  A    between atoms: C_10  and  C_13 
ROOT
HETATM    1  N   UNK     0      -7.526   6.738  -7.530  0.00  0.00    -0.187 N 
HETATM    2  N   UNK     0      -7.053   7.937  -9.341  0.00  0.00    -0.062 NA
HETATM    3  C   UNK     0      -6.447   7.510  -7.186  0.00  0.00     0.080 A 
HETATM    4  C   UNK     0      -4.649   8.533  -6.010  0.00  0.00     0.033 A 
HETATM    5  C   UNK     0      -6.171   8.249  -8.332  0.00  0.00     0.103 A 
HETATM    6  C   UNK     0      -5.711   7.623  -6.005  0.00  0.00     0.053 A 
HETATM    7  C   UNK     0      -4.348   9.289  -7.145  0.00  0.00     0.023 A 
HETATM    8  C   UNK     0      -5.101   9.160  -8.319  0.00  0.00     0.036 A 
HETATM    9  C   UNK     0      -7.851   7.028  -8.826  0.00  0.00     0.710 A 
HETATM   10  H   UNK     0      -7.998   6.072  -6.932  0.00  0.00     0.184 HD
ENDROOT
BRANCH   9  11
HETATM   11  N   UNK     0      -8.904   6.397  -9.434  0.00  0.00    -0.133 N 
HETATM   12  C   UNK     0     -10.233   6.833  -9.599  0.00  0.00     0.378 C 
HETATM   13  O   UNK     0     -10.701   7.896  -9.213  0.00  0.00    -0.238 OA
HETATM   14  H   UNK     0      -8.696   5.480  -9.824  0.00  0.00     0.190 HD
BRANCH  12  15
HETATM   15  O   UNK     0     -10.959   5.885 -10.269  0.00  0.00    -0.308 OA
HETATM   16  C   UNK     0     -11.189   6.136 -11.661  0.00  0.00     0.215 C 
ENDBRANCH  12  15
ENDBRANCH   9  11
BRANCH   4  17
HETATM   17  S   UNK     0      -3.656   8.732  -4.525  0.00  0.00     0.050 S 
HETATM   18  O   UNK     0      -4.160   7.762  -3.479  0.00  0.00    -0.253 OA
BRANCH  17  19
HETATM   19  C   UNK     0      -4.180  10.393  -4.016  0.00  0.00     0.114 C 
BRANCH  19  20
HETATM   20  C   UNK     0      -3.654  11.442  -4.986  0.00  0.00     0.008 C 
HETATM   21  C   UNK     0      -4.356  11.351  -6.331  0.00  0.00     0.006 C 
ENDBRANCH  19  20
ENDBRANCH  17  19
ENDBRANCH   4  17
TORSDOF 5
ENDMDL
MODEL 3
REMARK VINA RESULT:      79.4      3.606      6.552
REMARK  5 active torsions:
REMARK  status: ('A' for Active; 'I' for Inactive)
REMARK    1  A    between atoms: S_1  and  C_9 
REMARK    2  A    between atoms: S_1  and  C_10 
REMARK    3  A    between atoms: O_3  and  C_18 
REMARK    4  A    between atoms: N_7  and  C_16 
REMARK       I    between atoms: N_7  and  C_18 
REMARK    5  A    between atoms: C_10  and  C_13 
ROOT
HETATM    1  N   UNK     0      -7.561   8.172  -8.992  0.00  0.00    -0.187 N 
HETATM    2  N   UNK     0      -7.569   6.328  -7.750  0.00  0.00    -0.062 NA
HETATM    3  C   UNK     0      -6.581   8.359  -8.052  0.00  0.00     0.080 A 
HETATM    4  C   UNK     0      -4.813   9.262  -6.739  0.00  0.00     0.033 A 
HETATM    5  C   UNK     0      -6.606   7.195  -7.289  0.00  0.00     0.103 A 
HETATM    6  C   UNK     0      -5.701   9.415  -7.810  0.00  0.00     0.053 A 
HETATM    7  C   UNK     0      -4.815   8.106  -5.956  0.00  0.00     0.023 A 
HETATM    8  C   UNK     0      -5.707   7.058  -6.218  0.00  0.00     0.036 A 
HETATM    9  C   UNK     0      -8.122   6.944  -8.771  0.00  0.00     0.710 A 
HETATM   10  H   UNK     0      -7.822   8.824  -9.719  0.00  0.00     0.184 HD
ENDROOT
BRANCH   9  11
HETATM   11  N   UNK     0      -9.137   6.493  -9.574  0.00  0.00    -0.133 N 
HETATM   12  C   UNK     0     -10.385   7.083  -9.853  0.00  0.00     0.378 C 
HETATM   13  O   UNK     0     -10.801   8.147  -9.410  0.00  0.00    -0.238 OA
HETATM   14  H   UNK     0      -8.964   5.603 -10.036  0.00  0.00     0.190 HD
BRANCH  12  15
HETATM   15  O   UNK     0     -11.099   6.290 -10.711  0.00  0.00    -0.308 OA
HETATM   16  C   UNK     0     -10.838   6.480 -12.107  0.00  0.00     0.215 C 
ENDBRANCH  12  15
ENDBRANCH   9  11
BRANCH   4  17
HETATM   17  S   UNK     0      -3.651  10.581  -6.368  0.00  0.00     0.050 S 
HETATM   18  O   UNK     0      -4.273  11.490  -5.331  0.00  0.00    -0.253 OA
BRANCH  17  19
HETATM   19  C   UNK     0      -3.670  11.473  -7.949  0.00  0.00     0.114 C 
BRANCH  19  20
HETATM   20  C   UNK     0      -5.037  11.364  -8.609  0.00  0.00     0.008 C 
HETATM   21  C   UNK     0      -5.057  10.266  -9.659  0.00  0.00     0.006 C 
ENDBRANCH  19  20
ENDBRANCH  17  19
ENDBRANCH   4  17
TORSDOF 5
ENDMDL
