MODEL 1
REMARK VINA RESULT:      -5.9      0.000      0.000
REMARK  5 active torsions:
REMARK  status: ('A' for Active; 'I' for Inactive)
REMARK    1  A    between atoms: S_1  and  C_9 
REMARK    2  A    between atoms: S_1  and  C_10 
REMARK    3  A    between atoms: O_3  and  C_18 
REMARK    4  A    between atoms: N_7  and  C_16 
REMARK       I    between atoms: N_7  and  C_18 
REMARK    5  A    between atoms: C_10  and  C_13 
ROOT
HETATM    1  N   UNK     0       0.489  -6.674  12.675  0.00  0.00    -0.187 N 
HETATM    2  N   UNK     0      -0.931  -5.622  11.327  0.00  0.00    -0.062 NA
HETATM    3  C   UNK     0      -0.114  -7.660  11.938  0.00  0.00     0.080 A 
HETATM    4  C   UNK     0      -0.764  -9.758  11.023  0.00  0.00     0.033 A 
HETATM    5  C   UNK     0      -0.996  -6.978  11.104  0.00  0.00     0.103 A 
HETATM    6  C   UNK     0       0.031  -9.048  11.927  0.00  0.00     0.053 A 
HETATM    7  C   UNK     0      -1.658  -9.102  10.174  0.00  0.00     0.023 A 
HETATM    8  C   UNK     0      -1.787  -7.707  10.200  0.00  0.00     0.036 A 
HETATM    9  C   UNK     0      -0.032  -5.475  12.274  0.00  0.00     0.710 A 
HETATM   10  H   UNK     0       1.193  -6.809  13.388  0.00  0.00     0.184 HD
ENDROOT
BRANCH   9  11
HETATM   11  N   UNK     0       0.397  -4.307  12.849  0.00  0.00    -0.133 N 
HETATM   12  C   UNK     0       0.548  -3.031  12.273  0.00  0.00     0.378 C 
HETATM   13  O   UNK     0       0.315  -2.727  11.110  0.00  0.00    -0.238 OA
HETATM   14  H   UNK     0       0.639  -4.370  13.835  0.00  0.00     0.190 HD
BRANCH  12  15
HETATM   15  O   UNK     0       1.005  -2.143  13.210  0.00  0.00    -0.308 OA
HETATM   16  C   UNK     0       2.418  -1.908  13.217  0.00  0.00     0.215 C 
ENDBRANCH  12  15
ENDBRANCH   9  11
BRANCH   4  17
HETATM   17  S   UNK     0      -0.631 -11.549  10.954  0.00  0.00     0.050 S 
HETATM   18  O   UNK     0      -0.540 -12.077  12.369  0.00  0.00    -0.253 OA
BRANCH  17  19
HETATM   19  C   UNK     0       1.016 -11.714  10.209  0.00  0.00     0.114 C 
BRANCH  19  20
HETATM   20  C   UNK     0       0.939 -11.564   8.697  0.00  0.00     0.008 C 
HETATM   21  C   UNK     0      -0.408 -12.027   8.165  0.00  0.00     0.006 C 
ENDBRANCH  19  20
ENDBRANCH  17  19
ENDBRANCH   4  17
TORSDOF 5
ENDMDL
MODEL 2
REMARK VINA RESULT:      -4.6      2.314      2.732
REMARK  5 active torsions:
REMARK  status: ('A' for Active; 'I' for Inactive)
REMARK    1  A    between atoms: S_1  and  C_9 
REMARK    2  A    between atoms: S_1  and  C_10 
REMARK    3  A    between atoms: O_3  and  C_18 
REMARK    4  A    between atoms: N_7  and  C_16 
REMARK       I    between atoms: N_7  and  C_18 
REMARK    5  A    between atoms: C_10  and  C_13 
ROOT
HETATM    1  N   UNK     0       0.228  -6.344   9.418  0.00  0.00    -0.187 N 
HETATM    2  N   UNK     0      -1.453  -6.190  10.864  0.00  0.00    -0.062 NA
HETATM    3  C   UNK     0      -0.189  -7.632   9.633  0.00  0.00     0.080 A 
HETATM    4  C   UNK     0      -0.424  -9.999   9.576  0.00  0.00     0.033 A 
HETATM    5  C   UNK     0      -1.239  -7.509  10.539  0.00  0.00     0.103 A 
HETATM    6  C   UNK     0       0.248  -8.858   9.128  0.00  0.00     0.053 A 
HETATM    7  C   UNK     0      -1.481  -9.908  10.485  0.00  0.00     0.023 A 
HETATM    8  C   UNK     0      -1.904  -8.667  10.978  0.00  0.00     0.036 A 
HETATM    9  C   UNK     0      -0.557  -5.519  10.174  0.00  0.00     0.710 A 
HETATM   10  H   UNK     0       0.982  -6.055   8.809  0.00  0.00     0.184 HD
ENDROOT
BRANCH   9  11
HETATM   11  N   UNK     0      -0.361  -4.163  10.152  0.00  0.00    -0.133 N 
HETATM   12  C   UNK     0      -1.012  -3.179   9.383  0.00  0.00     0.378 C 
HETATM   13  O   UNK     0      -1.904  -3.368   8.566  0.00  0.00    -0.238 OA
HETATM   14  H   UNK     0       0.359  -3.816  10.782  0.00  0.00     0.190 HD
BRANCH  12  15
HETATM   15  O   UNK     0      -0.502  -1.942   9.674  0.00  0.00    -0.308 OA
HETATM   16  C   UNK     0       0.623  -1.918  10.561  0.00  0.00     0.215 C 
ENDBRANCH  12  15
ENDBRANCH   9  11
BRANCH   4  17
HETATM   17  S   UNK     0       0.084 -11.612   8.970  0.00  0.00     0.050 S 
HETATM   18  O   UNK     0      -0.709 -11.925   7.720  0.00  0.00    -0.253 OA
BRANCH  17  19
HETATM   19  C   UNK     0      -0.564 -12.667  10.297  0.00  0.00     0.114 C 
BRANCH  19  20
HETATM   20  C   UNK     0       0.502 -12.916  11.354  0.00  0.00     0.008 C 
HETATM   21  C   UNK     0       1.819 -12.258  10.974  0.00  0.00     0.006 C 
ENDBRANCH  19  20
ENDBRANCH  17  19
ENDBRANCH   4  17
TORSDOF 5
ENDMDL
MODEL 3
REMARK VINA RESULT:      -4.5      1.763      2.674
REMARK  5 active torsions:
REMARK  status: ('A' for Active; 'I' for Inactive)
REMARK    1  A    between atoms: S_1  and  C_9 
REMARK    2  A    between atoms: S_1  and  C_10 
REMARK    3  A    between atoms: O_3  and  C_18 
REMARK    4  A    between atoms: N_7  and  C_16 
REMARK       I    between atoms: N_7  and  C_18 
REMARK    5  A    between atoms: C_10  and  C_13 
ROOT
HETATM    1  N   UNK     0      -0.960  -6.491   9.374  0.00  0.00    -0.187 N 
HETATM    2  N   UNK     0      -0.429  -5.587  11.335  0.00  0.00    -0.062 NA
HETATM    3  C   UNK     0      -0.713  -7.549  10.211  0.00  0.00     0.080 A 
HETATM    4  C   UNK     0      -0.431  -9.732  11.115  0.00  0.00     0.033 A 
HETATM    5  C   UNK     0      -0.384  -6.958  11.428  0.00  0.00     0.103 A 
HETATM    6  C   UNK     0      -0.747  -8.930  10.014  0.00  0.00     0.053 A 
HETATM    7  C   UNK     0      -0.097  -9.168  12.349  0.00  0.00     0.023 A 
HETATM    8  C   UNK     0      -0.069  -7.779  12.524  0.00  0.00     0.036 A 
HETATM    9  C   UNK     0      -0.778  -5.341  10.091  0.00  0.00     0.710 A 
HETATM   10  H   UNK     0      -1.228  -6.550   8.401  0.00  0.00     0.184 HD
ENDROOT
BRANCH   9  11
HETATM   11  N   UNK     0      -0.962  -4.119   9.498  0.00  0.00    -0.133 N 
HETATM   12  C   UNK     0      -0.398  -2.872   9.829  0.00  0.00     0.378 C 
HETATM   13  O   UNK     0       0.388  -2.649  10.742  0.00  0.00    -0.238 OA
HETATM   14  H   UNK     0      -1.597  -4.112   8.703  0.00  0.00     0.190 HD
BRANCH  12  15
HETATM   15  O   UNK     0      -0.855  -1.907   8.972  0.00  0.00    -0.308 OA
HETATM   16  C   UNK     0      -1.862  -2.320   8.040  0.00  0.00     0.215 C 
ENDBRANCH  12  15
ENDBRANCH   9  11
BRANCH   4  17
HETATM   17  S   UNK     0      -0.455 -11.519  10.937  0.00  0.00     0.050 S 
HETATM   18  O   UNK     0       0.403 -12.121  12.028  0.00  0.00    -0.253 OA
BRANCH  17  19
HETATM   19  C   UNK     0       0.457 -11.692   9.377  0.00  0.00     0.114 C 
BRANCH  19  20
HETATM   20  C   UNK     0      -0.496 -11.997   8.230  0.00  0.00     0.008 C 
HETATM   21  C   UNK     0       0.242 -12.063   6.902  0.00  0.00     0.006 C 
ENDBRANCH  19  20
ENDBRANCH  17  19
ENDBRANCH   4  17
TORSDOF 5
ENDMDL
MODEL 4
REMARK VINA RESULT:      -3.6      2.880      7.376
REMARK  5 active torsions:
REMARK  status: ('A' for Active; 'I' for Inactive)
REMARK    1  A    between atoms: S_1  and  C_9 
REMARK    2  A    between atoms: S_1  and  C_10 
REMARK    3  A    between atoms: O_3  and  C_18 
REMARK    4  A    between atoms: N_7  and  C_16 
REMARK       I    between atoms: N_7  and  C_18 
REMARK    5  A    between atoms: C_10  and  C_13 
ROOT
HETATM    1  N   UNK     0       0.058  -8.391  10.349  0.00  0.00    -0.187 N 
HETATM    2  N   UNK     0       0.064  -8.746  12.543  0.00  0.00    -0.062 NA
HETATM    3  C   UNK     0      -0.147  -7.161  10.919  0.00  0.00     0.080 A 
HETATM    4  C   UNK     0      -0.517  -4.837  11.273  0.00  0.00     0.033 A 
HETATM    5  C   UNK     0      -0.139  -7.409  12.289  0.00  0.00     0.103 A 
HETATM    6  C   UNK     0      -0.333  -5.891  10.372  0.00  0.00     0.053 A 
HETATM    7  C   UNK     0      -0.514  -5.055  12.653  0.00  0.00     0.023 A 
HETATM    8  C   UNK     0      -0.325  -6.339  13.180  0.00  0.00     0.036 A 
HETATM    9  C   UNK     0       0.178  -9.305  11.359  0.00  0.00     0.710 A 
HETATM   10  H   UNK     0       0.110  -8.587   9.358  0.00  0.00     0.184 HD
ENDROOT
BRANCH   9  11
HETATM   11  N   UNK     0       0.393 -10.628  11.073  0.00  0.00    -0.133 N 
HETATM   12  C   UNK     0       0.367 -11.289   9.830  0.00  0.00     0.378 C 
HETATM   13  O   UNK     0       0.138 -10.778   8.741  0.00  0.00    -0.238 OA
HETATM   14  H   UNK     0       0.602 -11.218  11.875  0.00  0.00     0.190 HD
BRANCH  12  15
HETATM   15  O   UNK     0       0.638 -12.620  10.000  0.00  0.00    -0.308 OA
HETATM   16  C   UNK     0       0.716 -13.078  11.356  0.00  0.00     0.215 C 
ENDBRANCH  12  15
ENDBRANCH   9  11
BRANCH   4  17
HETATM   17  S   UNK     0      -0.762  -3.173  10.641  0.00  0.00     0.050 S 
HETATM   18  O   UNK     0      -0.826  -3.240   9.131  0.00  0.00    -0.253 OA
BRANCH  17  19
HETATM   19  C   UNK     0       0.834  -2.431  11.081  0.00  0.00     0.114 C 
BRANCH  19  20
HETATM   20  C   UNK     0       0.820  -1.942  12.522  0.00  0.00     0.008 C 
HETATM   21  C   UNK     0       2.140  -2.231  13.217  0.00  0.00     0.006 C 
ENDBRANCH  19  20
ENDBRANCH  17  19
ENDBRANCH   4  17
TORSDOF 5
ENDMDL
MODEL 5
REMARK VINA RESULT:      -3.6      2.201      2.928
REMARK  5 active torsions:
REMARK  status: ('A' for Active; 'I' for Inactive)
REMARK    1  A    between atoms: S_1  and  C_9 
REMARK    2  A    between atoms: S_1  and  C_10 
REMARK    3  A    between atoms: O_3  and  C_18 
REMARK    4  A    between atoms: N_7  and  C_16 
REMARK       I    between atoms: N_7  and  C_18 
REMARK    5  A    between atoms: C_10  and  C_13 
ROOT
HETATM    1  N   UNK     0      -0.592  -7.285  10.673  0.00  0.00    -0.187 N 
HETATM    2  N   UNK     0      -0.564  -7.547   8.466  0.00  0.00    -0.062 NA
HETATM    3  C   UNK     0      -0.528  -8.639  10.466  0.00  0.00     0.080 A 
HETATM    4  C   UNK     0      -0.421 -10.997  10.770  0.00  0.00     0.033 A 
HETATM    5  C   UNK     0      -0.512  -8.777   9.080  0.00  0.00     0.103 A 
HETATM    6  C   UNK     0      -0.484  -9.723  11.344  0.00  0.00     0.053 A 
HETATM    7  C   UNK     0      -0.404 -11.166   9.384  0.00  0.00     0.023 A 
HETATM    8  C   UNK     0      -0.448 -10.064   8.521  0.00  0.00     0.036 A 
HETATM    9  C   UNK     0      -0.611  -6.676   9.449  0.00  0.00     0.710 A 
HETATM   10  H   UNK     0      -0.620  -6.820  11.571  0.00  0.00     0.184 HD
ENDROOT
BRANCH   9  11
HETATM   11  N   UNK     0      -0.671  -5.310   9.357  0.00  0.00    -0.133 N 
HETATM   12  C   UNK     0      -0.592  -4.342  10.377  0.00  0.00     0.378 C 
HETATM   13  O   UNK     0      -0.450  -4.557  11.573  0.00  0.00    -0.238 OA
HETATM   14  H   UNK     0      -0.789  -4.942   8.416  0.00  0.00     0.190 HD
BRANCH  12  15
HETATM   15  O   UNK     0      -0.698  -3.086   9.841  0.00  0.00    -0.308 OA
HETATM   16  C   UNK     0      -1.735  -2.903   8.868  0.00  0.00     0.215 C 
ENDBRANCH  12  15
ENDBRANCH   9  11
BRANCH   4  17
HETATM   17  S   UNK     0      -0.362 -12.440  11.838  0.00  0.00     0.050 S 
HETATM   18  O   UNK     0      -0.871 -12.043  13.207  0.00  0.00    -0.253 OA
BRANCH  17  19
HETATM   19  C   UNK     0       1.435 -12.658  11.974  0.00  0.00     0.114 C 
BRANCH  19  20
HETATM   20  C   UNK     0       2.160 -11.775  10.970  0.00  0.00     0.008 C 
HETATM   21  C   UNK     0       2.909 -12.606   9.942  0.00  0.00     0.006 C 
ENDBRANCH  19  20
ENDBRANCH  17  19
ENDBRANCH   4  17
TORSDOF 5
ENDMDL
MODEL 6
REMARK VINA RESULT:      -3.4      2.624      3.479
REMARK  5 active torsions:
REMARK  status: ('A' for Active; 'I' for Inactive)
REMARK    1  A    between atoms: S_1  and  C_9 
REMARK    2  A    between atoms: S_1  and  C_10 
REMARK    3  A    between atoms: O_3  and  C_18 
REMARK    4  A    between atoms: N_7  and  C_16 
REMARK       I    between atoms: N_7  and  C_18 
REMARK    5  A    between atoms: C_10  and  C_13 
ROOT
HETATM    1  N   UNK     0      -1.146  -7.438   8.847  0.00  0.00    -0.187 N 
HETATM    2  N   UNK     0       0.294  -6.546  10.286  0.00  0.00    -0.062 NA
HETATM    3  C   UNK     0      -0.387  -8.485   9.301  0.00  0.00     0.080 A 
HETATM    4  C   UNK     0       0.538 -10.645   9.679  0.00  0.00     0.033 A 
HETATM    5  C   UNK     0       0.505  -7.902  10.198  0.00  0.00     0.103 A 
HETATM    6  C   UNK     0      -0.403  -9.851   9.015  0.00  0.00     0.053 A 
HETATM    7  C   UNK     0       1.445 -10.089  10.584  0.00  0.00     0.023 A 
HETATM    8  C   UNK     0       1.443  -8.715  10.857  0.00  0.00     0.036 A 
HETATM    9  C   UNK     0      -0.702  -6.301   9.463  0.00  0.00     0.710 A 
HETATM   10  H   UNK     0      -1.900  -7.496   8.175  0.00  0.00     0.184 HD
ENDROOT
BRANCH   9  11
HETATM   11  N   UNK     0      -1.289  -5.093   9.194  0.00  0.00    -0.133 N 
HETATM   12  C   UNK     0      -1.112  -3.852   9.835  0.00  0.00     0.378 C 
HETATM   13  O   UNK     0      -0.374  -3.623  10.785  0.00  0.00    -0.238 OA
HETATM   14  H   UNK     0      -1.947  -5.091   8.417  0.00  0.00     0.190 HD
BRANCH  12  15
HETATM   15  O   UNK     0      -1.898  -2.900   9.242  0.00  0.00    -0.308 OA
HETATM   16  C   UNK     0      -1.228  -1.991   8.361  0.00  0.00     0.215 C 
ENDBRANCH  12  15
ENDBRANCH   9  11
BRANCH   4  17
HETATM   17  S   UNK     0       0.577 -12.413   9.360  0.00  0.00     0.050 S 
HETATM   18  O   UNK     0      -0.178 -12.685   8.078  0.00  0.00    -0.253 OA
BRANCH  17  19
HETATM   19  C   UNK     0      -0.456 -13.003  10.731  0.00  0.00     0.114 C 
BRANCH  19  20
HETATM   20  C   UNK     0      -1.177 -11.841  11.398  0.00  0.00     0.008 C 
HETATM   21  C   UNK     0      -0.979 -11.860  12.904  0.00  0.00     0.006 C 
ENDBRANCH  19  20
ENDBRANCH  17  19
ENDBRANCH   4  17
TORSDOF 5
ENDMDL
