MODEL 1
REMARK VINA RESULT:      55.0      0.000      0.000
REMARK  5 active torsions:
REMARK  status: ('A' for Active; 'I' for Inactive)
REMARK    1  A    between atoms: S_1  and  C_9 
REMARK    2  A    between atoms: S_1  and  C_10 
REMARK    3  A    between atoms: O_3  and  C_18 
REMARK    4  A    between atoms: N_7  and  C_16 
REMARK       I    between atoms: N_7  and  C_18 
REMARK    5  A    between atoms: C_10  and  C_13 
ROOT
HETATM    1  N   UNK     0      -1.575 -10.354  11.250  0.00  0.00    -0.187 N 
HETATM    2  N   UNK     0      -3.779 -10.066  11.182  0.00  0.00    -0.062 NA
HETATM    3  C   UNK     0      -1.798  -9.468  10.227  0.00  0.00     0.080 A 
HETATM    4  C   UNK     0      -1.522  -7.962   8.405  0.00  0.00     0.033 A 
HETATM    5  C   UNK     0      -3.180  -9.305  10.204  0.00  0.00     0.103 A 
HETATM    6  C   UNK     0      -0.935  -8.815   9.345  0.00  0.00     0.053 A 
HETATM    7  C   UNK     0      -2.906  -7.778   8.359  0.00  0.00     0.023 A 
HETATM    8  C   UNK     0      -3.753  -8.443   9.254  0.00  0.00     0.036 A 
HETATM    9  C   UNK     0      -2.788 -10.681  11.789  0.00  0.00     0.710 A 
HETATM   10  H   UNK     0      -0.675 -10.702  11.551  0.00  0.00     0.184 HD
ENDROOT
BRANCH   9  11
HETATM   11  N   UNK     0      -2.864 -11.557  12.840  0.00  0.00    -0.133 N 
HETATM   12  C   UNK     0      -1.864 -12.382  13.390  0.00  0.00     0.378 C 
HETATM   13  O   UNK     0      -0.703 -12.467  13.010  0.00  0.00    -0.238 OA
HETATM   14  H   UNK     0      -3.775 -11.620  13.291  0.00  0.00     0.190 HD
BRANCH  12  15
HETATM   15  O   UNK     0      -2.372 -13.102  14.438  0.00  0.00    -0.308 OA
HETATM   16  C   UNK     0      -3.570 -12.587  15.032  0.00  0.00     0.215 C 
ENDBRANCH  12  15
ENDBRANCH   9  11
BRANCH   4  17
HETATM   17  S   UNK     0      -0.473  -7.087   7.238  0.00  0.00     0.050 S 
HETATM   18  O   UNK     0       0.023  -8.076   6.206  0.00  0.00    -0.253 OA
BRANCH  17  19
HETATM   19  C   UNK     0       0.930  -6.683   8.316  0.00  0.00     0.114 C 
BRANCH  19  20
HETATM   20  C   UNK     0       1.271  -7.861   9.216  0.00  0.00     0.008 C 
HETATM   21  C   UNK     0       2.724  -7.813   9.662  0.00  0.00     0.006 C 
ENDBRANCH  19  20
ENDBRANCH  17  19
ENDBRANCH   4  17
TORSDOF 5
ENDMDL
